 Fermi distribution function

Calculation with static geometry


********************************************************************************
 iSCC Total electronic   Diff electronic      SCC error    
    9   -0.11428782E+03   -0.12433077E-08    0.33154632E-05
********************************************************************************

Fermi level:                        -0.0620506970 H           -1.6885 eV
Band energy:                      -114.3092323930 H        -3110.5125 eV
TS:                                  0.0000000000 H            0.0000 eV
Band free energy (E-TS):          -114.3092323930 H        -3110.5125 eV
Extrapolated E(0K):               -114.3092323930 H        -3110.5125 eV

Energy H0:                        -114.2887240324 H        -3109.9544 eV
Energy SCC:                          0.0009089100 H            0.0247 eV
Total Electronic energy:          -114.2878151224 H        -3109.9297 eV
Repulsive energy:                    3.6767292235 H          100.0489 eV
Dispersion energy:                  -0.4322244176 H          -11.7614 eV
Total energy:                     -111.0433103164 H        -3021.6422 eV
Extrapolated to 0:                -111.0433103164 H        -3021.6422 eV
Total Mermin free energy:         -111.0433103164 H        -3021.6422 eV
Force related energy:             -111.0433103164 H        -3021.6422 eV

SCC converged

Total Forces
    1     -0.046028274343      0.075234759153      0.117209917269
    2     -0.061677873968     -0.052566533784     -0.002546644559
    3      0.020491515168      0.051155277622     -0.077576580539
    4     -0.015410456151     -0.028752948478     -0.011315002691
    5     -0.040599196758     -0.082040943583     -0.031773256086
    6      0.075108987905     -0.051353539887      0.024837874916
    7      0.068570481968      0.031868762846     -0.008514675993
    8      0.049022780756     -0.039929182417     -0.060825123307
    9      0.018023192951      0.078623014586     -0.046101362914
   10     -0.034715701417     -0.008859328796     -0.023794685814
   11     -0.039589903506      0.042125020644      0.007376015979
   12     -0.044905491321      0.026922501341     -0.079112226841
   13     -0.005484274909      0.058311054688     -0.053564599453
   14      0.054693160862      0.017992178125      0.001510213100
   15      0.037219786475      0.071244813211     -0.030004135072
   16     -0.021836541809     -0.035508157228     -0.003633531189
   17      0.046748308029      0.075503110247      0.018064349713
   18     -0.079955980706      0.031057634684     -0.084157964469
   19     -0.042950276684      0.052598295637      0.006706052770
   20     -0.037513511110      0.040227142998     -0.012945433321
   21      0.031637099714      0.048012509513     -0.044225361079
   22     -0.091871518540     -0.101592710436      0.079905698824
   23      0.055444071922     -0.041069836449      0.078111071233
   24     -0.063910464998     -0.083270379183      0.071130906231
   25      0.016013208836      0.060313409730     -0.013844663249
   26     -0.007037896034      0.028071250198      0.055381569578
   27      0.032617107444      0.070196692770     -0.075558175290
   28     -0.001404280521     -0.087437667226      0.058551859012
   29     -0.045722708991     -0.054267511257      0.017847216211
   30      0.090695680382     -0.072802081683     -0.047727862128
   31     -0.042687847634      0.008301473286      0.006851925159
   32     -0.073038044578     -0.089283653174      0.001099363339
   33     -0.005592013564     -0.043120911163      0.036282707896
   34     -0.078572593152      0.050327282179     -0.055246247585
   35     -0.006460165376      0.035028795752      0.095318841366
   36     -0.093897847745     -0.007295112626      0.047369445358
   37      0.030821754905      0.013744755921      0.061571667495
   38      0.039204769800      0.013660721256     -0.074839438575
   39      0.092177701148     -0.076458757773     -0.076386662402
   40      0.048348448485      0.073862741100      0.045341401854
   41      0.032994388263      0.066285969040     -0.038280892195
   42     -0.089918257265     -0.125766652524      0.117638178899
   43      0.103705111148     -0.010880166242     -0.126113410178
   44     -0.014547745306     -0.037142916702      0.101610634134
   45     -0.009312509282     -0.026506777007      0.068812718870
   46      0.033906755512      0.043599553301      0.002408601909
   47     -0.043420222655      0.001854601682     -0.058688495844
   48      0.058691488074     -0.073580357713     -0.011765752988
   49      0.059508608548     -0.013898754080      0.037060230146
   50     -0.098538529079     -0.011425637994     -0.091949675042
   51      0.038505409500     -0.085923868053     -0.024062908057
   52      0.037622727506      0.033997741020      0.049906021664
   53      0.113206550326      0.087730558159     -0.022710024689
   54     -0.116103881983     -0.015508556498      0.101226212840
   55      0.069329634176     -0.056996258744      0.017727496544
   56      0.030616798325      0.000981258837      0.020071119368
   57     -0.086873932482      0.037495485106      0.017663265286
   58      0.018731472237      0.038613262418     -0.018622841242
   59      0.024884317265      0.029366312193     -0.035325217670
   60      0.029746958033     -0.086311773699     -0.005396884868
   61      0.035849218709      0.085036894781     -0.024685082501
   62     -0.036233081710      0.051610851946     -0.034155631250
   63     -0.004955224993     -0.050969861208      0.002925560231
   64     -0.013371245801      0.019565149637      0.037932311887

Total stress tensor
      0.000116151202      0.000040006631     -0.000102331925
      0.000040006873      0.000121874302     -0.000133122693
     -0.000102331496     -0.000133122602      0.000126570519

Total lattice derivs
     -0.021109968747     -0.007271028791      0.018598376123
     -0.007271072823     -0.022150116882      0.024194462354
      0.018598298059      0.024194445766     -0.023003633720

Maximal derivative component:        0.126113E+00 au

Volume:                              0.245017E+04 au^3
Pressure:                            0.121532E-03 au     0.357559E+10 Pa

Warning: dipole moment is not defined absolutely!
Dipole moment:   -0.06929364   -0.37390669   -0.04729299 au
Dipole moment:   -0.17612688   -0.95037608   -0.12020681 Debye


